ALL ATOM STRUCTURE FOR MOLECULE UNK
   65
    0UDD    H65    1  -0.870   0.327  -0.287
    0UDD    C24    2  -0.805   0.248  -0.249
    0UDD    H63    3  -0.748   0.207  -0.333
    0UDD    H64    4  -0.869   0.168  -0.210
    0UDD    C23    5  -0.711   0.301  -0.140
    0UDD    H61    6  -0.770   0.345  -0.058
    0UDD    H62    7  -0.650   0.383  -0.180
    0UDD    C22    8  -0.618   0.193  -0.083
    0UDD    H59    9  -0.560   0.149  -0.165
    0UDD    H60   10  -0.679   0.111  -0.041
    0UDD    C21   11  -0.524   0.246   0.027
    0UDD    H57   12  -0.586   0.290   0.106
    0UDD    H58   13  -0.464   0.329  -0.014
    0UDD    C18   14  -0.429   0.142   0.090
    0UDD    H51   15  -0.488   0.052   0.113
    0UDD    C19   16  -0.365   0.193   0.221
    0UDD    H52   17  -0.284   0.125   0.249
    0UDD    H53   18  -0.319   0.291   0.201
    0UDD    C20   19  -0.462   0.205   0.339
    0UDD    H54   20  -0.410   0.239   0.429
    0UDD    H55   21  -0.544   0.276   0.319
    0UDD    H56   22  -0.508   0.108   0.362
    0UDD    C17   23  -0.322   0.103  -0.011
    0UDD    H49   24  -0.253   0.187  -0.030
    0UDD    H50   25  -0.364   0.072  -0.107
    0UDD    O16   26  -0.244  -0.008   0.041
    0UDD    C14   27  -0.139  -0.047  -0.033
    0UDD    O15   28  -0.107   0.007  -0.138
    0UDD    C13   29  -0.067  -0.165   0.028
    0UDD    H48   30  -0.079  -0.164   0.136
    0UDD    S25   31  -0.145  -0.325  -0.027
    0UDD    O26   32  -0.281  -0.326   0.034
    0UDD    O27   33  -0.145  -0.319  -0.176
    0UDD    O28   34  -0.055  -0.430   0.028
    0UDD    C12   35   0.081  -0.166  -0.011
    0UDD    H46   36   0.091  -0.167  -0.120
    0UDD    H47   37   0.127  -0.258   0.026
    0UDD    C10   38   0.157  -0.048   0.044
    0UDD    O11   39   0.112   0.039   0.116
    0UDD     O9   40   0.285  -0.052   0.003
    0UDD     C8   41   0.372   0.056   0.049
    0UDD    H44   42   0.370   0.058   0.158
    0UDD    H45   43   0.330   0.150   0.012
    0UDD     C5   44   0.514   0.034  -0.004
    0UDD    H38   45   0.507   0.023  -0.114
    0UDD     C6   46   0.583  -0.091   0.054
    0UDD    H39   47   0.691  -0.081   0.040
    0UDD    H40   48   0.567  -0.092   0.163
    0UDD     C7   49   0.539  -0.226  -0.005
    0UDD    H41   50   0.599  -0.308   0.039
    0UDD    H42   51   0.434  -0.247   0.014
    0UDD    H43   52   0.555  -0.228  -0.113
    0UDD     C4   53   0.596   0.162   0.025
    0UDD    H36   54   0.622   0.163   0.132
    0UDD    H37   55   0.532   0.250   0.009
    0UDD     C3   56   0.723   0.178  -0.059
    0UDD    H34   57   0.695   0.180  -0.166
    0UDD    H35   58   0.788   0.090  -0.047
    0UDD     C2   59   0.802   0.305  -0.025
    0UDD    H32   60   0.830   0.302   0.082
    0UDD    H33   61   0.737   0.392  -0.037
    0UDD     C1   62   0.928   0.322  -0.110
    0UDD    H29   63   0.997   0.237  -0.097
    0UDD    H30   64   0.904   0.328  -0.217
    0UDD    H31   65   0.982   0.414  -0.083
   0.00000   0.00000   0.00000
