UNITED ATOM STRUCTURE FOR MOLECULE UNK
    8
    0G016    C8    1  -0.131  -0.142   0.051
    0G016    C5    2  -0.120   0.003  -0.001
    0G016    C6    3  -0.147   0.101   0.115
    0G016    C7    4  -0.227   0.025  -0.109
    0G016    C4    5   0.019   0.032  -0.065
    0G016    C2    6   0.146   0.005   0.020
    0G016    C1    7   0.206  -0.134  -0.007
    0G016    C3    8   0.252   0.113  -0.006
   0.00000   0.00000   0.00000
