[ moleculetype ]
; molname	nrexcl
HOH		2

[ atoms ]
;   nr   type  resnr residue  atom   cgnr     charge       mass
     1     OW      1    HOH     OW      1      -0.82    9.95140
     2      H      1    HOH    HW1      1       0.41    4.03200
     3      H      1    HOH    HW2      1       0.41    4.03200

[ bonds ]
; i	j	funct	length	force.c.
1	2	1	0.1	345000	0.1     345000
1	3	1	0.1	345000	0.1     345000
	
[ angles ]
; i	j	k	funct	angle	force.c.
2	1	3	1	109.47	383	109.47	383

