[ atomtypes ]
;name  at.num   mass      charge  ptype       c6           c12
  CH0    6      0.000      0.000     A  0.0023970816  0.0002053489
  CH1    6      0.000      0.000     A  0.00606841    9.70225e-05
  CH2    6      0.000      0.000     A  0.0074684164  3.3965584e-05
  CH3    6      0.000      0.000     A  0.0096138025  2.6646244e-05

