[ moleculetype ]
; Name   nrexcl
G016     3

[ atoms ]
;  nr  type  resnr  resid  atom  cgnr  charge    mass
    1   CH3    1    G016     C8    1    0.0      15.0350
    2   CH0    1    G016     C5    2    0.0      12.0110
    3   CH3    1    G016     C6    3    0.0      15.0350
    4   CH3    1    G016     C7    4    0.0      15.0350
    5   CH2    1    G016     C4    5    0.0      14.0270
    6   CH1    1    G016     C2    6    0.0      13.0190
    7   CH3    1    G016     C1    7    0.0      15.0350
    8   CH3    1    G016     C3    8    0.0      15.0350


; total charge of the molecule:   0.000
[ bonds ]
;  ai   aj  funct   c0         c1
    1    2    2   0.1540   4.0057e+06
    2    3    2   0.1540   4.0057e+06
    2    4    2   0.1540   4.0057e+06
    2    5    2   0.1560   3.0819e+06
    5    6    2   0.1560   3.0819e+06
    6    7    2   0.1530   7.1500e+06
    6    8    2   0.1530   7.1500e+06
[ pairs ]
;  ai   aj  funct  ;  all 1-4 pairs but the ones excluded in GROMOS itp
    1    6    1
    2    7    1
    2    8    1
    3    6    1
    4    6    1
[ angles ]
;  ai   aj   ak  funct   angle     fc
    1    2    3    2    109.50   520.00
    1    2    4    2    109.50   520.00
    1    2    5    2    111.00   530.00
    3    2    4    2    109.50   520.00
    3    2    5    2    111.00   530.00
    4    2    5    2    111.00   530.00
    2    5    6    2    120.00   560.00
    5    6    7    2    111.00   530.00
    5    6    8    2    111.00   530.00
    7    6    8    2    109.50   520.00
[ dihedrals ]
; GROMOS improper dihedrals
;  ai   aj   ak   al  funct   angle     fc
    6    8    7    5    2     35.26   334.72
[ dihedrals ]
;  ai   aj   ak   al  funct    ph0      cp     mult
    2    5    6    7    1    180.00     1.00    3
    3    2    5    6    1      0.00     5.92    3
[ exclusions ]
;  ai   aj  funct  ;  GROMOS 1-4 exclusions


